<?xml version="1.0" encoding="UTF-8"?>

<!-- generated on Tue 15 Oct 2019 19:47:42 CEST by Eclipse SUMO GUI Version 1.1.0
<configuration xmlns:xsi="http://www.w3.org/2001/XMLSchema-instance" xsi:noNamespaceSchemaLocation="http://sumo.dlr.de/xsd/sumoConfiguration.xsd">

    <input>
        <net-file value="/home/jinke/aienvs/scenarios/Sumo/one_grid/cross.net.xml"/>
        <route-files value="/home/jinke/aienvs/scenarios/Sumo/one_grid/routes.rou.xml"/>
        <additional-files value="/home/jinke/aienvs/scenarios/Sumo/one_grid/cross.det.xml"/>
    </input>

    <time>
        <begin value="0"/>
    </time>

    <report>
        <verbose value="true"/>
        <no-step-log value="true"/>
    </report>

</configuration>
-->

<detector xmlns:xsi="http://www.w3.org/2001/XMLSchema-instance" xsi:noNamespaceSchemaLocation="http://sumo.dlr.de/xsd/det_e1_file.xsd">
</detector>
